[
    {"question": "What is the capital of France?", "answer": "Paris"},
    {"question": "Who wrote 'To Kill a Mockingbird'?", "answer": "Harper Lee"},
    {"question": "What is the smallest planet in our solar system?", "answer": "Mercury"},
    {"question": "In what year did the Titanic sink?", "answer": "1912"},
    {"question": "What element does 'O' represent on the periodic table?", "answer": "Oxygen"},
    {"question": "Who painted the Mona Lisa?", "answer": "Leonardo da Vinci"},
    {"question": "What is the chemical formula for water?", "answer": "H2O"},
    {"question": "Who is the author of the 'Harry Potter' series?", "answer": "J.K. Rowling"},
    {"question": "What is the largest mammal in the world?", "answer": "Blue whale"},
    {"question": "In which country is the Great Pyramid of Giza located?", "answer": "Egypt"},
    {"question": "What is the capital of Japan?", "answer": "Tokyo"},
    {"question": "What planet is known as the Red Planet?", "answer": "Mars"},
    {"question": "Who invented the telephone?", "answer": "Alexander Graham Bell"},
    {"question": "What is the hardest natural substance on Earth?", "answer": "Diamond"},
    {"question": "What is the main ingredient in guacamole?", "answer": "Avocado"},
    {"question": "In which city were the 2012 Summer Olympics held?", "answer": "London"},
    {"question": "Who was the first woman to win a Nobel Prize?", "answer": "Marie Curie"},
    {"question": "What is the largest bone in the human body?", "answer": "Femur"},
    {"question": "Which planet has the most moons?", "answer": "Jupiter"},
    {"question": "What is the pH of water?", "answer": "7"},
    {"question": "Who wrote 'Pride and Prejudice'?", "answer": "Jane Austen"},
    {"question": "What is the largest ocean on Earth?", "answer": "Pacific Ocean"},
    {"question": "Who was the first person to walk on the moon?", "answer": "Neil Armstrong"},
    {"question": "What is the capital city of Spain?", "answer": "Madrid"},
    {"question": "Which element is denoted by the atomic number 1?", "answer": "Hydrogen"},
    {"question": "What is the currency of Japan?", "answer": "Yen"},
    {"question": "Who painted 'Starry Night'?", "answer": "Vincent van Gogh"},
    {"question": "What is the tallest mountain in the world?", "answer": "Mount Everest"},
    {"question": "What is the longest river in the world?", "answer": "Nile River"},
    {"question": "Who is known as the father of modern physics?", "answer": "Albert Einstein"},
    {"question": "What year did World War II end?", "answer": "1945"},
    {"question": "What is the capital of Australia?", "answer": "Canberra"},
    {"question": "What animal is known as the King of the Jungle?", "answer": "Lion"},
    {"question": "Who discovered penicillin?", "answer": "Alexander Fleming"},
    {"question": "What is the main language spoken in Brazil?", "answer": "Portuguese"},
    {"question": "What is the currency of the United States?", "answer": "Dollar"},
    {"question": "What gas do plants absorb from the atmosphere for photosynthesis?", "answer": "Carbon Dioxide"},
    {"question": "What is the capital of Italy?", "answer": "Rome"},
    {"question": "Who is the main character in Shakespeare's play 'Hamlet'?", "answer": "Hamlet"},
    {"question": "What country is the origin of the car brand Toyota?", "answer": "Japan"},
    {"question": "What is the speed of light in a vacuum?", "answer": "Approximately 299,792 kilometers per second"},
    {"question": "What is the name of the largest continent?", "answer": "Asia"},
    {"question": "Who wrote the play 'Romeo and Juliet'?", "answer": "William Shakespeare"},
    {"question": "What is the primary ingredient in bread?", "answer": "Flour"},
    {"question": "What is the capital of Russia?", "answer": "Moscow"},
    {"question": "What ocean is off the coast of California?", "answer": "Pacific Ocean"},
    {"question": "In what year was the first iPhone released?", "answer": "2007"},
    {"question": "Who is the Greek god of the sea?", "answer": "Poseidon"},
    {"question": "What is the boiling point of water at sea level?", "answer": "100°C"},
    {"question": "What is the most abundant element in the Earth's atmosphere?", "answer": "Nitrogen"},
    {"question": "Who wrote 'The Great Gatsby'?", "answer": "F. Scott Fitzgerald"},
    {"question": "What is the formula for calculating the area of a circle?", "answer": "πr²"},
    {"question": "Which country is known as the Land of the Rising Sun?", "answer": "Japan"},
    {"question": "What is the name of the galaxy that contains our solar system?", "answer": "The Milky Way"},
    {"question": "Who was the first President of the United States?", "answer": "George Washington"},
    {"question": "What is the most widely spoken language in the world?", "answer": "Mandarin Chinese"}
]

